5
Atoms. Timestep: 0
O 3 2 5 0 0 0 1
O 2 3 4 0 0 0 1
N 2 5 6 0 0 0 2
O 1 4 8 0 0 0 1
N 2 6 7 0 0 0 2